{
  "name": "General Knowledge",
  "description": "A mix of science, history, geography, and pop culture",
  "questions": [
    {
      "question": "What planet is known as the Red Planet?",
      "options": ["Venus", "Mars", "Jupiter", "Saturn"],
      "answer": 1
    },
    {
      "question": "What is the largest ocean on Earth?",
      "options": ["Atlantic Ocean", "Indian Ocean", "Pacific Ocean", "Arctic Ocean"],
      "answer": 2
    },
    {
      "question": "Who painted the Mona Lisa?",
      "options": ["Michelangelo", "Leonardo da Vinci", "Raphael", "Donatello"],
      "answer": 1
    },
    {
      "question": "What is the chemical symbol for gold?",
      "options": ["Go", "Gd", "Au", "Ag"],
      "answer": 2
    },
    {
      "question": "Which country has the most people?",
      "options": ["United States", "India", "China", "Indonesia"],
      "answer": 1
    },
    {
      "question": "What year did World War II end?",
      "options": ["1943", "1944", "1945", "1946"],
      "answer": 2
    },
    {
      "question": "What is the smallest planet in our solar system?",
      "options": ["Mars", "Mercury", "Venus", "Pluto"],
      "answer": 1
    },
    {
      "question": "Which element has the atomic number 1?",
      "options": ["Helium", "Hydrogen", "Lithium", "Carbon"],
      "answer": 1
    },
    {
      "question": "What is the capital of Japan?",
      "options": ["Osaka", "Kyoto", "Tokyo", "Nagoya"],
      "answer": 2
    },
    {
      "question": "How many bones are in the adult human body?",
      "options": ["186", "196", "206", "216"],
      "answer": 2
    },
    {
      "question": "What is the hardest natural substance?",
      "options": ["Granite", "Diamond", "Quartz", "Titanium"],
      "answer": 1
    },
    {
      "question": "Which planet has the most moons?",
      "options": ["Jupiter", "Saturn", "Uranus", "Neptune"],
      "answer": 1
    },
    {
      "question": "What is the longest river in the world?",
      "options": ["Amazon", "Mississippi", "Nile", "Yangtze"],
      "answer": 2
    },
    {
      "question": "Who wrote Romeo and Juliet?",
      "options": ["Charles Dickens", "William Shakespeare", "Jane Austen", "Mark Twain"],
      "answer": 1
    },
    {
      "question": "What gas do plants absorb from the atmosphere?",
      "options": ["Oxygen", "Nitrogen", "Carbon Dioxide", "Hydrogen"],
      "answer": 2
    },
    {
      "question": "What is the speed of light in km/s (approximately)?",
      "options": ["100,000", "200,000", "300,000", "400,000"],
      "answer": 2
    },
    {
      "question": "Which animal is the tallest in the world?",
      "options": ["Elephant", "Giraffe", "Blue Whale", "Ostrich"],
      "answer": 1
    },
    {
      "question": "What is the main ingredient in guacamole?",
      "options": ["Tomato", "Avocado", "Lime", "Onion"],
      "answer": 1
    },
    {
      "question": "How many continents are there?",
      "options": ["5", "6", "7", "8"],
      "answer": 2
    },
    {
      "question": "What is the boiling point of water in Celsius?",
      "options": ["90°C", "95°C", "100°C", "105°C"],
      "answer": 2
    },
    {
      "question": "Which country gifted the Statue of Liberty to the USA?",
      "options": ["England", "France", "Germany", "Spain"],
      "answer": 1
    },
    {
      "question": "What is the largest mammal?",
      "options": ["African Elephant", "Blue Whale", "Giraffe", "Hippopotamus"],
      "answer": 1
    },
    {
      "question": "Who discovered penicillin?",
      "options": ["Louis Pasteur", "Alexander Fleming", "Joseph Lister", "Robert Koch"],
      "answer": 1
    },
    {
      "question": "What is the currency of the United Kingdom?",
      "options": ["Euro", "Pound Sterling", "Dollar", "Franc"],
      "answer": 1
    },
    {
      "question": "What year was the first iPhone released?",
      "options": ["2005", "2006", "2007", "2008"],
      "answer": 2
    },
    {
      "question": "Which planet is closest to the sun?",
      "options": ["Mercury", "Venus", "Earth", "Mars"],
      "answer": 0
    },
    {
      "question": "What is the largest desert in the world?",
      "options": ["Sahara", "Gobi", "Antarctic", "Arabian"],
      "answer": 2
    },
    {
      "question": "How many strings does a standard guitar have?",
      "options": ["4", "5", "6", "7"],
      "answer": 2
    },
    {
      "question": "What is the capital of Australia?",
      "options": ["Sydney", "Melbourne", "Canberra", "Brisbane"],
      "answer": 2
    },
    {
      "question": "Which vitamin is produced by sunlight on skin?",
      "options": ["Vitamin A", "Vitamin B", "Vitamin C", "Vitamin D"],
      "answer": 3
    },
    {
      "question": "What is the most abundant gas in Earth's atmosphere?",
      "options": ["Oxygen", "Nitrogen", "Carbon Dioxide", "Argon"],
      "answer": 1
    },
    {
      "question": "Who was the first person to walk on the moon?",
      "options": ["Buzz Aldrin", "Neil Armstrong", "John Glenn", "Yuri Gagarin"],
      "answer": 1
    },
    {
      "question": "What is the square root of 144?",
      "options": ["10", "11", "12", "13"],
      "answer": 2
    },
    {
      "question": "Which organ pumps blood through the body?",
      "options": ["Brain", "Lungs", "Heart", "Liver"],
      "answer": 2
    },
    {
      "question": "What is the largest continent by area?",
      "options": ["Africa", "North America", "Asia", "Europe"],
      "answer": 2
    },
    {
      "question": "What does DNA stand for?",
      "options": ["Deoxyribonucleic Acid", "Dynamic Nucleic Acid", "Dual Nitrogen Acid", "Direct Neural Access"],
      "answer": 0
    },
    {
      "question": "Which metal is liquid at room temperature?",
      "options": ["Lead", "Gallium", "Mercury", "Tin"],
      "answer": 2
    },
    {
      "question": "What is the national sport of Canada?",
      "options": ["Hockey", "Lacrosse", "Baseball", "Curling"],
      "answer": 1
    },
    {
      "question": "How many sides does a hexagon have?",
      "options": ["5", "6", "7", "8"],
      "answer": 1
    },
    {
      "question": "What is the deepest ocean trench?",
      "options": ["Tonga Trench", "Puerto Rico Trench", "Mariana Trench", "Java Trench"],
      "answer": 2
    },
    {
      "question": "Which artist is famous for the painting 'Starry Night'?",
      "options": ["Claude Monet", "Vincent van Gogh", "Pablo Picasso", "Salvador Dali"],
      "answer": 1
    },
    {
      "question": "What is the powerhouse of the cell?",
      "options": ["Nucleus", "Ribosome", "Mitochondria", "Golgi Body"],
      "answer": 2
    },
    {
      "question": "Which country is shaped like a boot?",
      "options": ["Greece", "Spain", "Italy", "Portugal"],
      "answer": 2
    },
    {
      "question": "What is the lightest element?",
      "options": ["Hydrogen", "Helium", "Lithium", "Carbon"],
      "answer": 0
    },
    {
      "question": "Who invented the telephone?",
      "options": ["Thomas Edison", "Alexander Graham Bell", "Nikola Tesla", "Samuel Morse"],
      "answer": 1
    },
    {
      "question": "What is the largest organ in the human body?",
      "options": ["Liver", "Brain", "Skin", "Heart"],
      "answer": 2
    },
    {
      "question": "How many legs does a spider have?",
      "options": ["6", "8", "10", "12"],
      "answer": 1
    },
    {
      "question": "What is the freezing point of water in Fahrenheit?",
      "options": ["0°F", "10°F", "32°F", "40°F"],
      "answer": 2
    },
    {
      "question": "Which language has the most native speakers?",
      "options": ["English", "Mandarin Chinese", "Spanish", "Hindi"],
      "answer": 1
    },
    {
      "question": "What is the tallest mountain in the world?",
      "options": ["K2", "Kangchenjunga", "Mount Everest", "Lhotse"],
      "answer": 2
    },
    {
      "question": "Which planet is known for its rings?",
      "options": ["Jupiter", "Saturn", "Uranus", "Neptune"],
      "answer": 1
    },
    {
      "question": "What color do you get when you mix red and blue?",
      "options": ["Green", "Orange", "Purple", "Brown"],
      "answer": 2
    },
    {
      "question": "How many players are on a soccer team?",
      "options": ["9", "10", "11", "12"],
      "answer": 2
    },
    {
      "question": "What is the capital of Brazil?",
      "options": ["Rio de Janeiro", "São Paulo", "Brasília", "Salvador"],
      "answer": 2
    },
    {
      "question": "Which sense does the tongue primarily provide?",
      "options": ["Smell", "Touch", "Taste", "Sight"],
      "answer": 2
    }
  ]
}
